,Potential,Element,1_0_0 surface energy,1_1_0 surface energy,1_1_1 surface energy,2_1_0 surface energy,2_1_1 surface energy,2_2_1 surface energy,3_1_0 surface energy,3_1_1 surface energy,3_2_0 surface energy,3_2_1 surface energy,3_2_2 surface energy,3_3_1 surface energy,3_3_2 surface energy,c_1_1 elastic constant,c_1_2 elastic constant,c_1_3  elastic constant,c_4_4  elastic constant,Shear modulus,Bulk modulus,Cohesive energy,Vacancy formation energy
117,Pt.set,Pt,2.182973949862697,2.4025769204755916,2.080449339930976,2.491624250028226,2.465919238378894,2.3321685358850064,2.4477111608430673,2.4069190941138543,2.4853724622859046,2.452966069497155,2.315255577106299,2.389767506532189,2.2584376673030047,358.6,261.4,261.4,78.3,66.4,293.8,5.7699605,1.5303394999998794
118,W.set,W,2.78673816500006,2.974401603322652,2.302057395890656,3.16867149066314,2.9567987084327974,2.714540917813134,3.113759683389627,2.944507479941771,3.1264227803016578,2.9544555399735075,2.641170483145123,2.8227402832028234,2.585002346234705,216.7,138.5,138.5,98.6,74.8,164.6,8.59694275,3.7419061999997503
119,Zr.set,Zr,1.3779545238477429,1.508439388613795,1.2601099488202276,1.6050956801876157,1.4788793449672222,1.4440647198485812,1.5495475732062656,1.5390389179963109,1.5696010217253928,1.556789842971592,1.4314403079078664,1.4990642752468564,1.426718825919183,103.8,77.2,77.2,45.1,32.4,86.1,6.35176775,1.8190470000000625